<?xml version="1.0" encoding="UTF-8"?>

<!-- generated on Tue 14 Jun 2022 10:17:51 AM UTC by Eclipse SUMO GUI Version 1.1.0
<configuration xmlns:xsi="http://www.w3.org/2001/XMLSchema-instance" xsi:noNamespaceSchemaLocation="http://sumo.dlr.de/xsd/sumoConfiguration.xsd">

    <input>
        <net-file value="map15_2.net.xml"/>
        <route-files value="map15_2.rou.xml"/>
        <additional-files value="induction.add.xml"/>
    </input>

    <output>
        <tripinfo-output value="tripinfo.xml"/>
    </output>

    <time>
        <step-length value="0.1"/>
    </time>

    <report>
        <xml-validation value="never"/>
        <xml-validation.net value="never"/>
    </report>

    <traci_server>
        <remote-port value="54343"/>
    </traci_server>

    <gui_only>
        <start value="true"/>
        <tracker-interval value="0.1"/>
    </gui_only>

</configuration>
-->

<tripinfos xmlns:xsi="http://www.w3.org/2001/XMLSchema-instance" xsi:noNamespaceSchemaLocation="http://sumo.dlr.de/xsd/tripinfo_file.xsd">
    <tripinfo id="1" depart="1.00" departLane="5028958#4.250_0" departPos="5.10" departSpeed="0.00" departDelay="0.00" arrival="41.20" arrivalLane="5028958#8_0" arrivalPos="44.73" arrivalSpeed="9.90" duration="40.20" routeLength="376.61" waitingTime="0.00" waitingCount="0" stopTime="0.00" timeLoss="2.52" rerouteNo="0" devices="tripinfo_1" vType="roadtaxrenew" speedFactor="1.06" vaporized=""/>
    <tripinfo id="2" depart="3.30" departLane="5028958#4.250_0" departPos="5.10" departSpeed="0.00" departDelay="1.30" arrival="43.50" arrivalLane="5028958#8_0" arrivalPos="44.73" arrivalSpeed="9.95" duration="40.20" routeLength="376.61" waitingTime="0.00" waitingCount="0" stopTime="0.00" timeLoss="2.53" rerouteNo="0" devices="tripinfo_2" vType="roadtaxrenew" speedFactor="0.94" vaporized=""/>
    <tripinfo id="3" depart="5.60" departLane="5028958#4.250_0" departPos="5.10" departSpeed="0.00" departDelay="2.60" arrival="45.90" arrivalLane="5028958#8_0" arrivalPos="44.73" arrivalSpeed="9.89" duration="40.30" routeLength="376.61" waitingTime="0.00" waitingCount="0" stopTime="0.00" timeLoss="2.61" rerouteNo="0" devices="tripinfo_3" vType="roadtaxrenew" speedFactor="1.01" vaporized=""/>
    <tripinfo id="25" depart="26.90" departLane="5028958#4.250_0" departPos="5.10" departSpeed="0.00" departDelay="1.90" arrival="47.20" arrivalLane="5028958#8_1" arrivalPos="44.73" arrivalSpeed="29.05" duration="20.30" routeLength="376.61" waitingTime="0.00" waitingCount="0" stopTime="0.00" timeLoss="7.27" rerouteNo="0" devices="tripinfo_25" vType="DEFAULT_VEHTYPE" speedFactor="1.05" vaporized=""/>
    <tripinfo id="6" depart="8.00" departLane="5028958#4.250_0" departPos="5.10" departSpeed="0.00" departDelay="2.00" arrival="48.20" arrivalLane="5028958#8_0" arrivalPos="44.73" arrivalSpeed="9.91" duration="40.20" routeLength="376.61" waitingTime="0.00" waitingCount="0" stopTime="0.00" timeLoss="2.53" rerouteNo="0" devices="tripinfo_6" vType="roadtaxrenew" speedFactor="1.03" vaporized=""/>
    <tripinfo id="26" depart="29.50" departLane="5028958#4.250_0" departPos="5.10" departSpeed="0.00" departDelay="3.50" arrival="49.90" arrivalLane="5028958#8_1" arrivalPos="44.73" arrivalSpeed="31.16" duration="20.40" routeLength="376.61" waitingTime="0.00" waitingCount="0" stopTime="0.00" timeLoss="8.32" rerouteNo="0" devices="tripinfo_26" vType="DEFAULT_VEHTYPE" speedFactor="1.12" vaporized=""/>
    <tripinfo id="11" depart="11.00" departLane="5028958#4.250_0" departPos="5.10" departSpeed="0.00" departDelay="0.00" arrival="51.30" arrivalLane="5028958#8_0" arrivalPos="44.73" arrivalSpeed="9.93" duration="40.30" routeLength="376.61" waitingTime="0.00" waitingCount="0" stopTime="0.00" timeLoss="2.59" rerouteNo="0" devices="tripinfo_11" vType="roadtaxrenew" speedFactor="1.05" vaporized=""/>
    <tripinfo id="12" depart="13.30" departLane="5028958#4.250_0" departPos="5.10" departSpeed="0.00" departDelay="1.30" arrival="53.50" arrivalLane="5028958#8_0" arrivalPos="44.73" arrivalSpeed="9.94" duration="40.20" routeLength="376.61" waitingTime="0.00" waitingCount="0" stopTime="0.00" timeLoss="2.53" rerouteNo="0" devices="tripinfo_12" vType="roadtaxrenew" speedFactor="0.89" vaporized=""/>
    <tripinfo id="27" depart="32.10" departLane="5028958#4.250_0" departPos="5.10" departSpeed="0.00" departDelay="5.10" arrival="53.80" arrivalLane="5028958#8_1" arrivalPos="44.73" arrivalSpeed="27.52" duration="21.70" routeLength="376.61" waitingTime="0.00" waitingCount="0" stopTime="0.00" timeLoss="7.97" rerouteNo="0" devices="tripinfo_27" vType="DEFAULT_VEHTYPE" speedFactor="0.99" vaporized=""/>
    <tripinfo id="13" depart="15.60" departLane="5028958#4.250_0" departPos="5.10" departSpeed="0.00" departDelay="2.60" arrival="56.00" arrivalLane="5028958#8_0" arrivalPos="44.73" arrivalSpeed="9.90" duration="40.40" routeLength="376.61" waitingTime="0.00" waitingCount="0" stopTime="0.00" timeLoss="2.69" rerouteNo="0" devices="tripinfo_13" vType="roadtaxrenew" speedFactor="0.94" vaporized=""/>
    <tripinfo id="16" depart="18.00" departLane="5028958#4.250_0" departPos="5.10" departSpeed="0.00" departDelay="2.00" arrival="58.30" arrivalLane="5028958#8_0" arrivalPos="44.73" arrivalSpeed="9.98" duration="40.30" routeLength="376.61" waitingTime="0.00" waitingCount="0" stopTime="0.00" timeLoss="2.62" rerouteNo="0" devices="tripinfo_16" vType="roadtaxrenew" speedFactor="0.86" vaporized=""/>
    <tripinfo id="22" depart="22.00" departLane="5028958#4.250_0" departPos="5.10" departSpeed="0.00" departDelay="0.00" arrival="62.30" arrivalLane="5028958#8_0" arrivalPos="44.73" arrivalSpeed="9.87" duration="40.30" routeLength="376.61" waitingTime="0.00" waitingCount="0" stopTime="0.00" timeLoss="2.59" rerouteNo="0" devices="tripinfo_22" vType="roadtaxrenew" speedFactor="1.09" vaporized=""/>
    <tripinfo id="23" depart="24.30" departLane="5028958#4.250_0" departPos="5.10" departSpeed="0.00" departDelay="1.30" arrival="64.50" arrivalLane="5028958#8_0" arrivalPos="44.73" arrivalSpeed="9.96" duration="40.20" routeLength="376.61" waitingTime="0.00" waitingCount="0" stopTime="0.00" timeLoss="2.50" rerouteNo="0" devices="tripinfo_23" vType="roadtaxrenew" speedFactor="1.03" vaporized=""/>
    <tripinfo id="28" depart="34.80" departLane="5028958#4.250_0" departPos="5.10" departSpeed="0.00" departDelay="6.80" arrival="66.10" arrivalLane="5028958#8_0" arrivalPos="44.73" arrivalSpeed="12.97" duration="31.30" routeLength="376.61" waitingTime="0.00" waitingCount="0" stopTime="0.00" timeLoss="16.64" rerouteNo="0" devices="tripinfo_28" vType="DEFAULT_VEHTYPE" speedFactor="0.93" vaporized=""/>
    <tripinfo id="29" depart="37.40" departLane="5028958#4.250_0" departPos="5.10" departSpeed="0.00" departDelay="8.40" arrival="67.50" arrivalLane="5028958#8_0" arrivalPos="44.73" arrivalSpeed="14.76" duration="30.10" routeLength="376.61" waitingTime="0.00" waitingCount="0" stopTime="0.00" timeLoss="14.63" rerouteNo="0" devices="tripinfo_29" vType="DEFAULT_VEHTYPE" speedFactor="0.88" vaporized=""/>
    <tripinfo id="30" depart="40.10" departLane="5028958#4.250_0" departPos="5.10" departSpeed="0.00" departDelay="10.10" arrival="68.80" arrivalLane="5028958#8_0" arrivalPos="44.73" arrivalSpeed="16.60" duration="28.70" routeLength="376.61" waitingTime="0.00" waitingCount="0" stopTime="0.00" timeLoss="14.26" rerouteNo="0" devices="tripinfo_30" vType="DEFAULT_VEHTYPE" speedFactor="0.94" vaporized=""/>
    <tripinfo id="31" depart="42.70" departLane="5028958#4.250_0" departPos="5.10" departSpeed="0.00" departDelay="11.70" arrival="70.10" arrivalLane="5028958#8_0" arrivalPos="44.73" arrivalSpeed="18.53" duration="27.40" routeLength="376.61" waitingTime="0.00" waitingCount="0" stopTime="0.00" timeLoss="12.86" rerouteNo="0" devices="tripinfo_31" vType="DEFAULT_VEHTYPE" speedFactor="0.94" vaporized=""/>
    <tripinfo id="32" depart="45.20" departLane="5028958#4.250_0" departPos="5.10" departSpeed="0.00" departDelay="13.20" arrival="71.30" arrivalLane="5028958#8_0" arrivalPos="44.73" arrivalSpeed="20.12" duration="26.10" routeLength="376.61" waitingTime="0.00" waitingCount="0" stopTime="0.00" timeLoss="14.38" rerouteNo="0" devices="tripinfo_32" vType="DEFAULT_VEHTYPE" speedFactor="1.16" vaporized=""/>
    <tripinfo id="34" depart="47.80" departLane="5028958#4.250_0" departPos="5.10" departSpeed="0.00" departDelay="13.80" arrival="72.60" arrivalLane="5028958#8_0" arrivalPos="44.73" arrivalSpeed="22.39" duration="24.80" routeLength="376.61" waitingTime="0.00" waitingCount="0" stopTime="0.00" timeLoss="11.42" rerouteNo="0" devices="tripinfo_34" vType="DEFAULT_VEHTYPE" speedFactor="1.02" vaporized=""/>
    <tripinfo id="35" depart="50.40" departLane="5028958#4.250_0" departPos="5.10" departSpeed="0.00" departDelay="15.40" arrival="73.90" arrivalLane="5028958#8_0" arrivalPos="44.73" arrivalSpeed="24.90" duration="23.50" routeLength="376.61" waitingTime="0.00" waitingCount="0" stopTime="0.00" timeLoss="10.02" rerouteNo="0" devices="tripinfo_35" vType="DEFAULT_VEHTYPE" speedFactor="1.01" vaporized=""/>
    <tripinfo id="36" depart="53.10" departLane="5028958#4.250_0" departPos="5.10" departSpeed="0.00" departDelay="17.10" arrival="75.20" arrivalLane="5028958#8_0" arrivalPos="44.73" arrivalSpeed="27.08" duration="22.10" routeLength="376.61" waitingTime="0.00" waitingCount="0" stopTime="0.00" timeLoss="8.16" rerouteNo="0" devices="tripinfo_36" vType="DEFAULT_VEHTYPE" speedFactor="0.98" vaporized=""/>
    <tripinfo id="38" depart="55.70" departLane="5028958#4.250_0" departPos="5.10" departSpeed="0.00" departDelay="17.70" arrival="77.10" arrivalLane="5028958#8_0" arrivalPos="44.73" arrivalSpeed="24.66" duration="21.40" routeLength="376.61" waitingTime="0.00" waitingCount="0" stopTime="0.00" timeLoss="6.09" rerouteNo="0" devices="tripinfo_38" vType="DEFAULT_VEHTYPE" speedFactor="0.89" vaporized=""/>
    <tripinfo id="39" depart="58.30" departLane="5028958#4.250_0" departPos="5.10" departSpeed="0.00" departDelay="19.30" arrival="80.20" arrivalLane="5028958#8_0" arrivalPos="44.73" arrivalSpeed="22.83" duration="21.90" routeLength="376.61" waitingTime="0.00" waitingCount="0" stopTime="0.00" timeLoss="5.39" rerouteNo="0" devices="tripinfo_39" vType="DEFAULT_VEHTYPE" speedFactor="0.83" vaporized=""/>
    <tripinfo id="40" depart="60.90" departLane="5028958#4.250_0" departPos="5.10" departSpeed="0.00" departDelay="20.90" arrival="82.50" arrivalLane="5028958#8_0" arrivalPos="44.73" arrivalSpeed="24.20" duration="21.60" routeLength="376.61" waitingTime="0.00" waitingCount="0" stopTime="0.00" timeLoss="6.03" rerouteNo="0" devices="tripinfo_40" vType="DEFAULT_VEHTYPE" speedFactor="0.87" vaporized=""/>
    <tripinfo id="41" depart="63.50" departLane="5028958#4.250_0" departPos="5.10" departSpeed="0.00" departDelay="22.50" arrival="84.80" arrivalLane="5028958#8_0" arrivalPos="44.73" arrivalSpeed="25.35" duration="21.30" routeLength="376.61" waitingTime="0.00" waitingCount="0" stopTime="0.00" timeLoss="6.44" rerouteNo="0" devices="tripinfo_41" vType="DEFAULT_VEHTYPE" speedFactor="0.92" vaporized=""/>
    <tripinfo id="42" depart="66.20" departLane="5028958#4.250_0" departPos="5.10" departSpeed="0.00" departDelay="24.20" arrival="87.30" arrivalLane="5028958#8_0" arrivalPos="44.73" arrivalSpeed="26.34" duration="21.10" routeLength="376.61" waitingTime="0.00" waitingCount="0" stopTime="0.00" timeLoss="6.73" rerouteNo="0" devices="tripinfo_42" vType="DEFAULT_VEHTYPE" speedFactor="0.95" vaporized=""/>
    <tripinfo id="43" depart="68.90" departLane="5028958#4.250_0" departPos="5.10" departSpeed="0.00" departDelay="25.90" arrival="88.90" arrivalLane="5028958#8_0" arrivalPos="44.73" arrivalSpeed="31.35" duration="20.00" routeLength="376.61" waitingTime="0.00" waitingCount="0" stopTime="0.00" timeLoss="7.96" rerouteNo="0" devices="tripinfo_43" vType="DEFAULT_VEHTYPE" speedFactor="1.13" vaporized=""/>
    <tripinfo id="44" depart="71.50" departLane="5028958#4.250_0" departPos="5.10" departSpeed="0.00" departDelay="27.50" arrival="92.50" arrivalLane="5028958#8_0" arrivalPos="44.73" arrivalSpeed="25.78" duration="21.00" routeLength="376.61" waitingTime="0.00" waitingCount="0" stopTime="0.00" timeLoss="6.37" rerouteNo="0" devices="tripinfo_44" vType="DEFAULT_VEHTYPE" speedFactor="0.93" vaporized=""/>
    <tripinfo id="45" depart="74.10" departLane="5028958#4.250_0" departPos="5.10" departSpeed="0.00" departDelay="29.10" arrival="94.20" arrivalLane="5028958#8_0" arrivalPos="44.73" arrivalSpeed="31.77" duration="20.10" routeLength="376.61" waitingTime="0.00" waitingCount="0" stopTime="0.00" timeLoss="8.54" rerouteNo="0" devices="tripinfo_45" vType="DEFAULT_VEHTYPE" speedFactor="1.18" vaporized=""/>
    <tripinfo id="47" depart="76.70" departLane="5028958#4.250_0" departPos="5.10" departSpeed="0.00" departDelay="29.70" arrival="96.70" arrivalLane="5028958#8_0" arrivalPos="44.73" arrivalSpeed="32.03" duration="20.00" routeLength="376.61" waitingTime="0.00" waitingCount="0" stopTime="0.00" timeLoss="8.17" rerouteNo="0" devices="tripinfo_47" vType="DEFAULT_VEHTYPE" speedFactor="1.15" vaporized=""/>
    <tripinfo id="48" depart="79.40" departLane="5028958#4.250_0" departPos="5.10" departSpeed="0.00" departDelay="31.40" arrival="99.80" arrivalLane="5028958#8_0" arrivalPos="44.73" arrivalSpeed="27.92" duration="20.40" routeLength="376.61" waitingTime="0.00" waitingCount="0" stopTime="0.00" timeLoss="6.90" rerouteNo="0" devices="tripinfo_48" vType="DEFAULT_VEHTYPE" speedFactor="1.01" vaporized=""/>
    <tripinfo id="49" depart="82.00" departLane="5028958#4.250_0" departPos="5.10" departSpeed="0.00" departDelay="33.00" arrival="101.90" arrivalLane="5028958#8_0" arrivalPos="44.73" arrivalSpeed="32.49" duration="19.90" routeLength="376.61" waitingTime="0.00" waitingCount="0" stopTime="0.00" timeLoss="8.31" rerouteNo="0" devices="tripinfo_49" vType="DEFAULT_VEHTYPE" speedFactor="1.17" vaporized=""/>
    <tripinfo id="4" depart="7.90" departLane="5028958#4.250_0" departPos="5.10" departSpeed="0.00" departDelay="3.90" arrival="116.70" arrivalLane="5028958#8_0" arrivalPos="44.73" arrivalSpeed="9.95" duration="108.80" routeLength="396.56" waitingTime="36.90" waitingCount="1" stopTime="22.70" timeLoss="46.28" rerouteNo="0" devices="tripinfo_4" vType="expiredroadtax" speedFactor="1.08" vaporized=""/>
    <tripinfo id="9" depart="10.30" departLane="5028958#4.250_0" departPos="5.10" departSpeed="0.00" departDelay="1.30" arrival="118.30" arrivalLane="5028958#8_1" arrivalPos="44.73" arrivalSpeed="9.92" duration="108.00" routeLength="396.56" waitingTime="32.80" waitingCount="1" stopTime="20.60" timeLoss="46.82" rerouteNo="0" devices="tripinfo_9" vType="expiredroadtax" speedFactor="0.83" vaporized=""/>
</tripinfos>
